<?xml version="1.0" encoding="UTF-8"?>

<!-- generated on 2026-04-24T14:07:34.333154+05:30 by Eclipse SUMO sumo 1.26.0
<sumoConfiguration xmlns:xsi="http://www.w3.org/2001/XMLSchema-instance" xsi:noNamespaceSchemaLocation="http://sumo.dlr.de/xsd/sumoConfiguration.xsd">

    <input>
        <net-file value="sumo/grid.net.xml"/>
        <route-files value="sumo/routes_high.rou.xml"/>
    </input>

    <output>
        <fcd-output value="sumo/fcd_output.xml"/>
    </output>

    <time>
        <begin value="0"/>
        <end value="1000"/>
    </time>

    <processing>
        <scale value="3.0"/>
    </processing>

    <traci_server>
        <remote-port value="36957"/>
    </traci_server>

</sumoConfiguration>
-->

<fcd-export xmlns:xsi="http://www.w3.org/2001/XMLSchema-instance" xsi:noNamespaceSchemaLocation="http://sumo.dlr.de/xsd/fcd_file.xsd">
    <timestep time="0.00">
        <vehicle id="f_high.0" x="1.60" y="8.30" angle="0.00" type="car" speed="0.00" pos="5.10" lane="A0A1_0" slope="0.00"/>
    </timestep>
    <timestep time="1.00">
        <vehicle id="f_high.0" x="1.60" y="9.64" angle="0.00" type="car" speed="1.34" pos="6.44" lane="A0A1_0" slope="0.00"/>
    </timestep>
    <timestep time="2.00">
        <vehicle id="f_high.0" x="1.60" y="13.04" angle="0.00" type="car" speed="3.40" pos="9.84" lane="A0A1_0" slope="0.00"/>
    </timestep>
    <timestep time="3.00">
        <vehicle id="f_high.0" x="1.60" y="18.04" angle="0.00" type="car" speed="5.00" pos="14.84" lane="A0A1_0" slope="0.00"/>
        <vehicle id="f_high.1" x="1.60" y="8.30" angle="0.00" type="car" speed="0.00" pos="5.10" lane="A0A1_0" slope="0.00"/>
    </timestep>
    <timestep time="4.00">
        <vehicle id="f_high.0" x="1.60" y="24.89" angle="0.00" type="car" speed="6.86" pos="21.69" lane="A0A1_0" slope="0.00"/>
        <vehicle id="f_high.1" x="1.60" y="10.83" angle="0.00" type="car" speed="2.53" pos="7.63" lane="A0A1_0" slope="0.00"/>
    </timestep>
    <timestep time="5.00">
        <vehicle id="f_high.0" x="1.60" y="33.51" angle="0.00" type="car" speed="8.62" pos="30.31" lane="A0A1_0" slope="0.00"/>
        <vehicle id="f_high.1" x="1.60" y="15.14" angle="0.00" type="car" speed="4.30" pos="11.94" lane="A0A1_0" slope="0.00"/>
    </timestep>
    <timestep time="6.00">
        <vehicle id="f_high.0" x="1.60" y="44.00" angle="0.00" type="car" speed="10.49" pos="40.80" lane="A0A1_0" slope="0.00"/>
        <vehicle id="f_high.1" x="1.60" y="21.89" angle="0.00" type="car" speed="6.76" pos="18.69" lane="A0A1_0" slope="0.00"/>
        <vehicle id="f_high.2" x="1.60" y="8.30" angle="0.00" type="car" speed="0.00" pos="5.10" lane="A0A1_0" slope="0.00"/>
    </timestep>
    <timestep time="7.00">
        <vehicle id="f_high.0" x="1.60" y="56.44" angle="0.00" type="car" speed="12.45" pos="53.24" lane="A0A1_0" slope="0.00"/>
        <vehicle id="f_high.1" x="1.60" y="30.74" angle="0.00" type="car" speed="8.84" pos="27.54" lane="A0A1_0" slope="0.00"/>
        <vehicle id="f_high.2" x="1.60" y="10.27" angle="0.00" type="car" speed="1.97" pos="7.07" lane="A0A1_0" slope="0.00"/>
    </timestep>
    <timestep time="8.00">
        <vehicle id="f_high.0" x="1.60" y="69.98" angle="0.00" type="car" speed="13.53" pos="66.78" lane="A0A1_0" slope="0.00"/>
        <vehicle id="f_high.1" x="1.60" y="40.92" angle="0.00" type="car" speed="10.18" pos="37.72" lane="A0A1_0" slope="0.00"/>
        <vehicle id="f_high.2" x="1.60" y="14.56" angle="0.00" type="car" speed="4.29" pos="11.36" lane="A0A1_0" slope="0.00"/>
    </timestep>
    <timestep time="9.00">
        <vehicle id="f_high.0" x="1.60" y="84.31" angle="0.00" type="car" speed="14.33" pos="81.11" lane="A0A1_0" slope="0.00"/>
        <vehicle id="f_high.1" x="1.60" y="53.21" angle="0.00" type="car" speed="12.29" pos="50.01" lane="A0A1_0" slope="0.00"/>
        <vehicle id="f_high.2" x="1.60" y="20.29" angle="0.00" type="car" speed="5.73" pos="17.09" lane="A0A1_0" slope="0.00"/>
        <vehicle id="f_high.3" x="1.60" y="8.30" angle="0.00" type="car" speed="0.00" pos="5.10" lane="A0A1_0" slope="0.00"/>
    </timestep>
    <timestep time="10.00">
        <vehicle id="f_high.0" x="1.60" y="98.60" angle="0.00" type="car" speed="14.29" pos="95.40" lane="A0A1_0" slope="0.00"/>
        <vehicle id="f_high.1" x="1.60" y="65.42" angle="0.00" type="car" speed="12.22" pos="62.22" lane="A0A1_0" slope="0.00"/>
        <vehicle id="f_high.2" x="1.60" y="27.94" angle="0.00" type="car" speed="7.65" pos="24.74" lane="A0A1_0" slope="0.00"/>
        <vehicle id="f_high.3" x="1.60" y="10.07" angle="0.00" type="car" speed="1.77" pos="6.87" lane="A0A1_0" slope="0.00"/>
    </timestep>
    <timestep time="11.00">
        <vehicle id="f_high.0" x="1.60" y="112.53" angle="0.00" type="car" speed="13.93" pos="109.33" lane="A0A1_0" slope="0.00"/>
        <vehicle id="f_high.1" x="1.60" y="77.91" angle="0.00" type="car" speed="12.49" pos="74.71" lane="A0A1_0" slope="0.00"/>
        <vehicle id="f_high.2" x="1.60" y="37.56" angle="0.00" type="car" speed="9.63" pos="34.36" lane="A0A1_0" slope="0.00"/>
        <vehicle id="f_high.3" x="1.60" y="14.34" angle="0.00" type="car" speed="4.26" pos="11.14" lane="A0A1_0" slope="0.00"/>
    </timestep>
    <timestep time="12.00">
        <vehicle id="f_high.0" x="1.60" y="126.39" angle="0.00" type="car" speed="13.86" pos="123.19" lane="A0A1_0" slope="0.00"/>
        <vehicle id="f_high.1" x="1.60" y="90.39" angle="0.00" type="car" speed="12.48" pos="87.19" lane="A0A1_0" slope="0.00"/>
        <vehicle id="f_high.2" x="1.60" y="49.37" angle="0.00" type="car" speed="11.81" pos="46.17" lane="A0A1_0" slope="0.00"/>
        <vehicle id="f_high.3" x="1.60" y="21.12" angle="0.00" type="car" speed="6.79" pos="17.92" lane="A0A1_0" slope="0.00"/>
        <vehicle id="f_high.4" x="1.60" y="8.30" angle="0.00" type="car" speed="0.00" pos="5.10" lane="A0A1_0" slope="0.00"/>
    </timestep>
    <timestep time="13.00">
        <vehicle id="f_high.0" x="1.60" y="140.95" angle="0.00" type="car" speed="14.56" pos="137.75" lane="A0A1_0" slope="0.00"/>
        <vehicle id="f_high.1" x="1.60" y="102.33" angle="0.00" type="car" speed="11.94" pos="99.13" lane="A0A1_0" slope="0.00"/>
        <vehicle id="f_high.2" x="1.60" y="63.40" angle="0.00" type="car" speed="14.03" pos="60.20" lane="A0A1_0" slope="0.00"/>
        <vehicle id="f_high.3" x="1.60" y="30.47" angle="0.00" type="car" speed="9.35" pos="27.27" lane="A0A1_0" slope="0.00"/>
        <vehicle id="f_high.4" x="1.60" y="10.37" angle="0.00" type="car" speed="2.07" pos="7.17" lane="A0A1_0" slope="0.00"/>
    </timestep>
    <timestep time="14.00">
        <vehicle id="f_high.0" x="1.60" y="155.37" angle="0.00" type="car" speed="14.43" pos="152.17" lane="A0A1_0" slope="0.00"/>
        <vehicle id="f_high.1" x="1.60" y="114.08" angle="0.00" type="car" speed="11.75" pos="110.88" lane="A0A1_0" slope="0.00"/>
        <vehicle id="f_high.2" x="1.60" y="77.28" angle="0.00" type="car" speed="13.87" pos="74.08" lane="A0A1_0" slope="0.00"/>
        <vehicle id="f_high.3" x="1.60" y="41.99" angle="0.00" type="car" speed="11.52" pos="38.79" lane="A0A1_0" slope="0.00"/>
        <vehicle id="f_high.4" x="1.60" y="14.24" angle="0.00" type="car" speed="3.87" pos="11.04" lane="A0A1_0" slope="0.00"/>
    </timestep>
    <timestep time="15.00">
        <vehicle id="f_high.0" x="1.60" y="170.00" angle="0.00" type="car" speed="14.62" pos="166.80" lane="A0A1_0" slope="0.00"/>
        <vehicle id="f_high.1" x="1.60" y="126.29" angle="0.00" type="car" speed="12.20" pos="123.09" lane="A0A1_0" slope="0.00"/>
        <vehicle id="f_high.2" x="1.60" y="90.43" angle="0.00" type="car" speed="13.15" pos="87.23" lane="A0A1_0" slope="0.00"/>
        <vehicle id="f_high.3" x="1.60" y="56.05" angle="0.00" type="car" speed="14.06" pos="52.85" lane="A0A1_0" slope="0.00"/>
        <vehicle id="f_high.4" x="1.60" y="20.06" angle="0.00" type="car" speed="5.82" pos="16.86" lane="A0A1_0" slope="0.00"/>
        <vehicle id="f_high.5" x="1.60" y="8.30" angle="0.00" type="car" speed="0.00" pos="5.10" lane="A0A1_0" slope="0.00"/>
    </timestep>
    <timestep time="16.00">
        <vehicle id="f_high.0" x="1.60" y="184.66" angle="0.00" type="car" speed="14.66" pos="181.46" lane="A0A1_0" slope="0.00"/>
        <vehicle id="f_high.1" x="1.60" y="138.73" angle="0.00" type="car" speed="12.44" pos="135.53" lane="A0A1_0" slope="0.00"/>
        <vehicle id="f_high.2" x="1.60" y="103.44" angle="0.00" type="car" speed="13.01" pos="100.24" lane="A0A1_0" slope="0.00"/>
        <vehicle id="f_high.3" x="1.60" y="70.15" angle="0.00" type="car" speed="14.11" pos="66.95" lane="A0A1_0" slope="0.00"/>
        <vehicle id="f_high.4" x="1.60" y="27.93" angle="0.00" type="car" speed="7.87" pos="24.73" lane="A0A1_0" slope="0.00"/>
        <vehicle id="f_high.5" x="1.60" y="10.13" angle="0.00" type="car" speed="1.83" pos="6.93" lane="A0A1_0" slope="0.00"/>
    </timestep>
    <timestep time="17.00">
        <vehicle id="f_high.0" x="1.60" y="198.46" angle="0.00" type="car" speed="13.81" pos="195.26" lane="A0A1_0" slope="0.00"/>
        <vehicle id="f_high.1" x="1.60" y="151.02" angle="0.00" type="car" speed="12.30" pos="147.82" lane="A0A1_0" slope="0.00"/>
        <vehicle id="f_high.2" x="1.60" y="117.46" angle="0.00" type="car" speed="14.02" pos="114.26" lane="A0A1_0" slope="0.00"/>
        <vehicle id="f_high.3" x="1.60" y="84.13" angle="0.00" type="car" speed="13.98" pos="80.93" lane="A0A1_0" slope="0.00"/>
        <vehicle id="f_high.4" x="1.60" y="37.49" angle="0.00" type="car" speed="9.56" pos="34.29" lane="A0A1_0" slope="0.00"/>
        <vehicle id="f_high.5" x="1.60" y="14.07" angle="0.00" type="car" speed="3.95" pos="10.87" lane="A0A1_0" slope="0.00"/>
    </timestep>
    <timestep time="18.00">
        <vehicle id="f_high.0" x="1.60" y="211.97" angle="0.00" type="car" speed="13.51" pos="208.77" lane="A0A1_0" slope="0.00"/>
        <vehicle id="f_high.1" x="1.60" y="164.03" angle="0.00" type="car" speed="13.00" pos="160.83" lane="A0A1_0" slope="0.00"/>
        <vehicle id="f_high.2" x="1.60" y="130.50" angle="0.00" type="car" speed="13.04" pos="127.30" lane="A0A1_0" slope="0.00"/>
        <vehicle id="f_high.3" x="1.60" y="98.23" angle="0.00" type="car" speed="14.10" pos="95.03" lane="A0A1_0" slope="0.00"/>
        <vehicle id="f_high.4" x="1.60" y="49.65" angle="0.00" type="car" speed="12.16" pos="46.45" lane="A0A1_0" slope="0.00"/>
        <vehicle id="f_high.5" x="1.60" y="19.61" angle="0.00" type="car" speed="5.54" pos="16.41" lane="A0A1_0" slope="0.00"/>
        <vehicle id="f_high.6" x="1.60" y="8.30" angle="0.00" type="car" speed="0.00" pos="5.10" lane="A0A1_0" slope="0.00"/>
    </timestep>
    <timestep time="19.00">
        <vehicle id="f_high.0" x="1.60" y="225.72" angle="0.00" type="car" speed="13.75" pos="222.52" lane="A0A1_0" slope="0.00"/>
        <vehicle id="f_high.1" x="1.60" y="176.89" angle="0.00" type="car" speed="12.86" pos="173.69" lane="A0A1_0" slope="0.00"/>
        <vehicle id="f_high.2" x="1.60" y="143.99" angle="0.00" type="car" speed="13.49" pos="140.79" lane="A0A1_0" slope="0.00"/>
        <vehicle id="f_high.3" x="1.60" y="112.23" angle="0.00" type="car" speed="14.00" pos="109.03" lane="A0A1_0" slope="0.00"/>
        <vehicle id="f_high.4" x="1.60" y="63.32" angle="0.00" type="car" speed="13.67" pos="60.12" lane="A0A1_0" slope="0.00"/>
        <vehicle id="f_high.5" x="1.60" y="27.02" angle="0.00" type="car" speed="7.41" pos="23.82" lane="A0A1_0" slope="0.00"/>
        <vehicle id="f_high.6" x="1.60" y="9.85" angle="0.00" type="car" speed="1.55" pos="6.65" lane="A0A1_0" slope="0.00"/>
    </timestep>
    <timestep time="20.00">
        <vehicle id="f_high.0" x="1.60" y="239.79" angle="0.00" type="car" speed="14.06" pos="236.59" lane="A0A1_0" slope="0.00"/>
        <vehicle id="f_high.1" x="1.60" y="189.30" angle="0.00" type="car" speed="12.41" pos="186.10" lane="A0A1_0" slope="0.00"/>
        <vehicle id="f_high.2" x="1.60" y="157.95" angle="0.00" type="car" speed="13.96" pos="154.75" lane="A0A1_0" slope="0.00"/>
        <vehicle id="f_high.3" x="1.60" y="127.17" angle="0.00" type="car" speed="14.94" pos="123.97" lane="A0A1_0" slope="0.00"/>
        <vehicle id="f_high.4" x="1.60" y="77.48" angle="0.00" type="car" speed="14.16" pos="74.28" lane="A0A1_0" slope="0.00"/>
        <vehicle id="f_high.5" x="1.60" y="36.60" angle="0.00" type="car" speed="9.58" pos="33.40" lane="A0A1_0" slope="0.00"/>
        <vehicle id="f_high.6" x="1.60" y="13.23" angle="0.00" type="car" speed="3.37" pos="10.03" lane="A0A1_0" slope="0.00"/>
    </timestep>
    <timestep time="21.00">
        <vehicle id="f_high.0" x="1.60" y="253.46" angle="0.00" type="car" speed="13.67" pos="250.26" lane="A0A1_0" slope="0.00"/>
        <vehicle id="f_high.1" x="1.60" y="201.34" angle="0.00" type="car" speed="12.04" pos="198.14" lane="A0A1_0" slope="0.00"/>
        <vehicle id="f_high.2" x="1.60" y="171.38" angle="0.00" type="car" speed="13.43" pos="168.18" lane="A0A1_0" slope="0.00"/>
        <vehicle id="f_high.3" x="1.60" y="141.84" angle="0.00" type="car" speed="14.67" pos="138.64" lane="A0A1_0" slope="0.00"/>
        <vehicle id="f_high.4" x="1.60" y="91.27" angle="0.00" type="car" speed="13.79" pos="88.07" lane="A0A1_0" slope="0.00"/>
        <vehicle id="f_high.5" x="1.60" y="47.92" angle="0.00" type="car" speed="11.33" pos="44.72" lane="A0A1_0" slope="0.00"/>
        <vehicle id="f_high.6" x="1.60" y="18.82" angle="0.00" type="car" speed="5.59" pos="15.62" lane="A0A1_0" slope="0.00"/>
        <vehicle id="f_high.7" x="1.60" y="8.30" angle="0.00" type="car" speed="0.00" pos="5.10" lane="A0A1_0" slope="0.00"/>
    </timestep>
    <timestep time="22.00">
        <vehicle id="f_high.0" x="1.60" y="267.56" angle="0.00" type="car" speed="14.10" pos="264.36" lane="A0A1_0" slope="0.00"/>
        <vehicle id="f_high.1" x="1.60" y="213.72" angle="0.00" type="car" speed="12.38" pos="210.52" lane="A0A1_0" slope="0.00"/>
        <vehicle id="f_high.2" x="1.60" y="185.00" angle="0.00" type="car" speed="13.62" pos="181.80" lane="A0A1_0" slope="0.00"/>
        <vehicle id="f_high.3" x="1.60" y="156.14" angle="0.00" type="car" speed="14.30" pos="152.94" lane="A0A1_0" slope="0.00"/>
        <vehicle id="f_high.4" x="1.60" y="104.51" angle="0.00" type="car" speed="13.24" pos="101.31" lane="A0A1_0" slope="0.00"/>
        <vehicle id="f_high.5" x="1.60" y="58.61" angle="0.00" type="car" speed="10.69" pos="55.41" lane="A0A1_0" slope="0.00"/>
        <vehicle id="f_high.6" x="1.60" y="26.97" angle="0.00" type="car" speed="8.14" pos="23.77" lane="A0A1_0" slope="0.00"/>
        <vehicle id="f_high.7" x="1.60" y="10.40" angle="0.00" type="car" speed="2.10" pos="7.20" lane="A0A1_0" slope="0.00"/>
    </timestep>
    <timestep time="23.00">
        <vehicle id="f_high.0" x="1.60" y="281.13" angle="0.00" type="car" speed="13.57" pos="277.93" lane="A0A1_0" slope="0.00"/>
        <vehicle id="f_high.1" x="1.60" y="225.60" angle="0.00" type="car" speed="11.89" pos="222.40" lane="A0A1_0" slope="0.00"/>
        <vehicle id="f_high.2" x="1.60" y="197.74" angle="0.00" type="car" speed="12.74" pos="194.54" lane="A0A1_0" slope="0.00"/>
        <vehicle id="f_high.3" x="1.60" y="170.52" angle="0.00" type="car" speed="14.38" pos="167.32" lane="A0A1_0" slope="0.00"/>
        <vehicle id="f_high.4" x="1.60" y="117.68" angle="0.00" type="car" speed="13.17" pos="114.48" lane="A0A1_0" slope="0.00"/>
        <vehicle id="f_high.5" x="1.60" y="69.19" angle="0.00" type="car" speed="10.58" pos="65.99" lane="A0A1_0" slope="0.00"/>
        <vehicle id="f_high.6" x="1.60" y="37.62" angle="0.00" type="car" speed="10.65" pos="34.42" lane="A0A1_0" slope="0.00"/>
        <vehicle id="f_high.7" x="1.60" y="14.78" angle="0.00" type="car" speed="4.38" pos="11.58" lane="A0A1_0" slope="0.00"/>
    </timestep>
    <timestep time="24.00">
        <vehicle id="f_high.0" x="1.60" y="294.62" angle="0.00" type="car" speed="13.50" pos="291.42" lane="A0A1_0" slope="0.00"/>
        <vehicle id="f_high.1" x="1.60" y="238.38" angle="0.00" type="car" speed="12.78" pos="235.18" lane="A0A1_0" slope="0.00"/>
        <vehicle id="f_high.2" x="1.60" y="211.26" angle="0.00" type="car" speed="13.52" pos="208.06" lane="A0A1_0" slope="0.00"/>
        <vehicle id="f_high.3" x="1.60" y="184.40" angle="0.00" type="car" speed="13.88" pos="181.20" lane="A0A1_0" slope="0.00"/>
        <vehicle id="f_high.4" x="1.60" y="131.94" angle="0.00" type="car" speed="14.26" pos="128.74" lane="A0A1_0" slope="0.00"/>
        <vehicle id="f_high.5" x="1.60" y="79.80" angle="0.00" type="car" speed="10.61" pos="76.60" lane="A0A1_0" slope="0.00"/>
        <vehicle id="f_high.6" x="1.60" y="50.25" angle="0.00" type="car" speed="12.63" pos="47.05" lane="A0A1_0" slope="0.00"/>
        <vehicle id="f_high.7" x="1.60" y="21.08" angle="0.00" type="car" speed="6.31" pos="17.88" lane="A0A1_0" slope="0.00"/>
        <vehicle id="f_high.8" x="1.60" y="8.30" angle="0.00" type="car" speed="0.00" pos="5.10" lane="A0A1_0" slope="0.00"/>
    </timestep>
    <timestep time="25.00">
        <vehicle id="f_high.0" x="1.60" y="308.50" angle="0.00" type="car" speed="13.88" pos="305.30" lane="A0A1_0" slope="0.00"/>
        <vehicle id="f_high.1" x="1.60" y="251.07" angle="0.00" type="car" speed="12.69" pos="247.87" lane="A0A1_0" slope="0.00"/>
        <vehicle id="f_high.2" x="1.60" y="224.05" angle="0.00" type="car" speed="12.79" pos="220.85" lane="A0A1_0" slope="0.00"/>
        <vehicle id="f_high.3" x="1.60" y="198.20" angle="0.00" type="car" speed="13.81" pos="195.00" lane="A0A1_0" slope="0.00"/>
        <vehicle id="f_high.4" x="1.60" y="145.26" angle="0.00" type="car" speed="13.32" pos="142.06" lane="A0A1_0" slope="0.00"/>
        <vehicle id="f_high.5" x="1.60" y="90.08" angle="0.00" type="car" speed="10.27" pos="86.88" lane="A0A1_0" slope="0.00"/>
        <vehicle id="f_high.6" x="1.60" y="63.22" angle="0.00" type="car" speed="12.97" pos="60.02" lane="A0A1_0" slope="0.00"/>
        <vehicle id="f_high.7" x="1.60" y="29.70" angle="0.00" type="car" speed="8.61" pos="26.50" lane="A0A1_0" slope="0.00"/>
        <vehicle id="f_high.8" x="1.60" y="10.02" angle="0.00" type="car" speed="1.72" pos="6.82" lane="A0A1_0" slope="0.00"/>
    </timestep>
    <timestep time="26.00">
        <vehicle id="f_high.0" x="1.60" y="323.21" angle="0.00" type="car" speed="14.71" pos="320.01" lane="A0A1_0" slope="0.00"/>
        <vehicle id="f_high.1" x="1.60" y="262.92" angle="0.00" type="car" speed="11.85" pos="259.72" lane="A0A1_0" slope="0.00"/>
        <vehicle id="f_high.2" x="1.60" y="237.43" angle="0.00" type="car" speed="13.38" pos="234.23" lane="A0A1_0" slope="0.00"/>
        <vehicle id="f_high.3" x="1.60" y="211.86" angle="0.00" type="car" speed="13.65" pos="208.66" lane="A0A1_0" slope="0.00"/>
        <vehicle id="f_high.4" x="1.60" y="158.40" angle="0.00" type="car" speed="13.14" pos="155.20" lane="A0A1_0" slope="0.00"/>
        <vehicle id="f_high.5" x="1.60" y="100.60" angle="0.00" type="car" speed="10.53" pos="97.40" lane="A0A1_0" slope="0.00"/>
        <vehicle id="f_high.6" x="1.60" y="76.42" angle="0.00" type="car" speed="13.20" pos="73.22" lane="A0A1_0" slope="0.00"/>
        <vehicle id="f_high.7" x="1.60" y="39.70" angle="0.00" type="car" speed="10.01" pos="36.50" lane="A0A1_0" slope="0.00"/>
        <vehicle id="f_high.8" x="1.60" y="14.15" angle="0.00" type="car" speed="4.12" pos="10.95" lane="A0A1_0" slope="0.00"/>
    </timestep>
    <timestep time="27.00">
        <vehicle id="f_high.0" x="1.60" y="336.99" angle="0.00" type="car" speed="13.78" pos="333.79" lane="A0A1_0" slope="0.00"/>
        <vehicle id="f_high.1" x="1.60" y="275.63" angle="0.00" type="car" speed="12.71" pos="272.43" lane="A0A1_0" slope="0.00"/>
        <vehicle id="f_high.2" x="1.60" y="250.98" angle="0.00" type="car" speed="13.55" pos="247.78" lane="A0A1_0" slope="0.00"/>
        <vehicle id="f_high.3" x="1.60" y="225.17" angle="0.00" type="car" speed="13.31" pos="221.97" lane="A0A1_0" slope="0.00"/>
        <vehicle id="f_high.4" x="1.60" y="171.94" angle="0.00" type="car" speed="13.54" pos="168.74" lane="A0A1_0" slope="0.00"/>
        <vehicle id="f_high.5" x="1.60" y="111.55" angle="0.00" type="car" speed="10.95" pos="108.35" lane="A0A1_0" slope="0.00"/>
        <vehicle id="f_high.6" x="1.60" y="88.71" angle="0.00" type="car" speed="12.29" pos="85.51" lane="A0A1_0" slope="0.00"/>
        <vehicle id="f_high.7" x="1.60" y="51.65" angle="0.00" type="car" speed="11.95" pos="48.45" lane="A0A1_0" slope="0.00"/>
        <vehicle id="f_high.8" x="1.60" y="19.92" angle="0.00" type="car" speed="5.77" pos="16.72" lane="A0A1_0" slope="0.00"/>
        <vehicle id="f_high.9" x="1.60" y="8.30" angle="0.00" type="car" speed="0.00" pos="5.10" lane="A0A1_0" slope="0.00"/>
    </timestep>
    <timestep time="28.00">
        <vehicle id="f_high.0" x="1.60" y="350.90" angle="0.00" type="car" speed="13.91" pos="347.70" lane="A0A1_0" slope="0.00"/>
        <vehicle id="f_high.1" x="1.60" y="287.77" angle="0.00" type="car" speed="12.14" pos="284.57" lane="A0A1_0" slope="0.00"/>
        <vehicle id="f_high.2" x="1.60" y="264.13" angle="0.00" type="car" speed="13.15" pos="260.93" lane="A0A1_0" slope="0.00"/>
        <vehicle id="f_high.3" x="1.60" y="239.32" angle="0.00" type="car" speed="14.15" pos="236.12" lane="A0A1_0" slope="0.00"/>
        <vehicle id="f_high.4" x="1.60" y="185.45" angle="0.00" type="car" speed="13.51" pos="182.25" lane="A0A1_0" slope="0.00"/>
        <vehicle id="f_high.5" x="1.60" y="122.00" angle="0.00" type="car" speed="10.45" pos="118.80" lane="A0A1_0" slope="0.00"/>
        <vehicle id="f_high.6" x="1.60" y="100.07" angle="0.00" type="car" speed="11.36" pos="96.87" lane="A0A1_0" slope="0.00"/>
        <vehicle id="f_high.7" x="1.60" y="62.75" angle="0.00" type="car" speed="11.10" pos="59.55" lane="A0A1_0" slope="0.00"/>
        <vehicle id="f_high.8" x="1.60" y="28.03" angle="0.00" type="car" speed="8.12" pos="24.83" lane="A0A1_0" slope="0.00"/>
        <vehicle id="f_high.9" x="1.60" y="9.87" angle="0.00" type="car" speed="1.57" pos="6.67" lane="A0A1_0" slope="0.00"/>
    </timestep>
    <timestep time="29.00">
        <vehicle id="f_high.0" x="1.60" y="365.60" angle="0.00" type="car" speed="14.70" pos="362.40" lane="A0A1_0" slope="0.00"/>
        <vehicle id="f_high.1" x="1.60" y="299.54" angle="0.00" type="car" speed="11.77" pos="296.34" lane="A0A1_0" slope="0.00"/>
        <vehicle id="f_high.2" x="1.60" y="276.94" angle="0.00" type="car" speed="12.80" pos="273.74" lane="A0A1_0" slope="0.00"/>
        <vehicle id="f_high.3" x="1.60" y="253.01" angle="0.00" type="car" speed="13.69" pos="249.81" lane="A0A1_0" slope="0.00"/>
        <vehicle id="f_high.4" x="1.60" y="198.83" angle="0.00" type="car" speed="13.38" pos="195.63" lane="A0A1_0" slope="0.00"/>
        <vehicle id="f_high.5" x="1.60" y="132.77" angle="0.00" type="car" speed="10.76" pos="129.57" lane="A0A1_0" slope="0.00"/>
        <vehicle id="f_high.6" x="1.60" y="111.45" angle="0.00" type="car" speed="11.38" pos="108.25" lane="A0A1_0" slope="0.00"/>
        <vehicle id="f_high.7" x="1.60" y="74.08" angle="0.00" type="car" speed="11.33" pos="70.88" lane="A0A1_0" slope="0.00"/>
        <vehicle id="f_high.8" x="1.60" y="38.74" angle="0.00" type="car" speed="10.70" pos="35.54" lane="A0A1_0" slope="0.00"/>
        <vehicle id="f_high.9" x="1.60" y="13.44" angle="0.00" type="car" speed="3.57" pos="10.24" lane="A0A1_0" slope="0.00"/>
    </timestep>
    <timestep time="30.00">
        <vehicle id="f_high.0" x="1.60" y="380.28" angle="0.00" type="car" speed="14.68" pos="377.08" lane="A0A1_0" slope="0.00"/>
        <vehicle id="f_high.1" x="1.60" y="312.10" angle="0.00" type="car" speed="12.56" pos="308.90" lane="A0A1_0" slope="0.00"/>
        <vehicle id="f_high.10" x="1.60" y="8.30" angle="0.00" type="car" speed="0.00" pos="5.10" lane="A0A1_0" slope="0.00"/>
        <vehicle id="f_high.2" x="1.60" y="289.51" angle="0.00" type="car" speed="12.57" pos="286.31" lane="A0A1_0" slope="0.00"/>
        <vehicle id="f_high.3" x="1.60" y="266.09" angle="0.00" type="car" speed="13.09" pos="262.89" lane="A0A1_0" slope="0.00"/>
        <vehicle id="f_high.4" x="1.60" y="212.76" angle="0.00" type="car" speed="13.94" pos="209.56" lane="A0A1_0" slope="0.00"/>
        <vehicle id="f_high.5" x="1.60" y="143.55" angle="0.00" type="car" speed="10.78" pos="140.35" lane="A0A1_0" slope="0.00"/>
        <vehicle id="f_high.6" x="1.60" y="122.76" angle="0.00" type="car" speed="11.31" pos="119.56" lane="A0A1_0" slope="0.00"/>
        <vehicle id="f_high.7" x="1.60" y="85.84" angle="0.00" type="car" speed="11.76" pos="82.64" lane="A0A1_0" slope="0.00"/>
        <vehicle id="f_high.8" x="1.60" y="51.49" angle="0.00" type="car" speed="12.75" pos="48.29" lane="A0A1_0" slope="0.00"/>
        <vehicle id="f_high.9" x="1.60" y="18.40" angle="0.00" type="car" speed="4.95" pos="15.20" lane="A0A1_0" slope="0.00"/>
    </timestep>
    <timestep time="31.00">
        <vehicle id="f_high.0" x="1.60" y="394.40" angle="0.00" type="car" speed="14.11" pos="391.20" lane="A0A1_0" slope="0.00"/>
        <vehicle id="f_high.1" x="1.60" y="324.86" angle="0.00" type="car" speed="12.76" pos="321.66" lane="A0A1_0" slope="0.00"/>
        <vehicle id="f_high.10" x="1.60" y="9.81" angle="0.00" type="car" speed="1.51" pos="6.61" lane="A0A1_0" slope="0.00"/>
        <vehicle id="f_high.2" x="1.60" y="301.69" angle="0.00" type="car" speed="12.18" pos="298.49" lane="A0A1_0" slope="0.00"/>
        <vehicle id="f_high.3" x="1.60" y="278.58" angle="0.00" type="car" speed="12.49" pos="275.38" lane="A0A1_0" slope="0.00"/>
        <vehicle id="f_high.4" x="1.60" y="227.02" angle="0.00" type="car" speed="14.26" pos="223.82" lane="A0A1_0" slope="0.00"/>
        <vehicle id="f_high.5" x="1.60" y="154.75" angle="0.00" type="car" speed="11.21" pos="151.55" lane="A0A1_0" slope="0.00"/>
        <vehicle id="f_high.6" x="1.60" y="133.90" angle="0.00" type="car" speed="11.14" pos="130.70" lane="A0A1_0" slope="0.00"/>
        <vehicle id="f_high.7" x="1.60" y="97.46" angle="0.00" type="car" speed="11.62" pos="94.26" lane="A0A1_0" slope="0.00"/>
        <vehicle id="f_high.8" x="1.60" y="63.59" angle="0.00" type="car" speed="12.10" pos="60.39" lane="A0A1_0" slope="0.00"/>
        <vehicle id="f_high.9" x="1.60" y="25.27" angle="0.00" type="car" speed="6.87" pos="22.07" lane="A0A1_0" slope="0.00"/>
    </timestep>
    <timestep time="32.00">
        <vehicle id="f_high.0" x="1.60" y="407.92" angle="0.00" type="car" speed="13.52" pos="404.72" lane="A0A1_0" slope="0.00"/>
        <vehicle id="f_high.1" x="1.60" y="337.86" angle="0.00" type="car" speed="13.01" pos="334.66" lane="A0A1_0" slope="0.00"/>
        <vehicle id="f_high.10" x="1.60" y="13.29" angle="0.00" type="car" speed="3.49" pos="10.09" lane="A0A1_0" slope="0.00"/>
        <vehicle id="f_high.2" x="1.60" y="314.96" angle="0.00" type="car" speed="13.27" pos="311.76" lane="A0A1_0" slope="0.00"/>
        <vehicle id="f_high.3" x="1.60" y="291.34" angle="0.00" type="car" speed="12.76" pos="288.14" lane="A0A1_0" slope="0.00"/>
        <vehicle id="f_high.4" x="1.60" y="240.66" angle="0.00" type="car" speed="13.64" pos="237.46" lane="A0A1_0" slope="0.00"/>
        <vehicle id="f_high.5" x="1.60" y="165.41" angle="0.00" type="car" speed="10.65" pos="162.21" lane="A0A1_0" slope="0.00"/>
        <vehicle id="f_high.6" x="1.60" y="144.54" angle="0.00" type="car" speed="10.64" pos="141.34" lane="A0A1_0" slope="0.00"/>
        <vehicle id="f_high.7" x="1.60" y="109.76" angle="0.00" type="car" speed="12.30" pos="106.56" lane="A0A1_0" slope="0.00"/>
        <vehicle id="f_high.8" x="1.60" y="76.30" angle="0.00" type="car" speed="12.71" pos="73.10" lane="A0A1_0" slope="0.00"/>
        <vehicle id="f_high.9" x="1.60" y="34.20" angle="0.00" type="car" speed="8.93" pos="31.00" lane="A0A1_0" slope="0.00"/>
    </timestep>
    <timestep time="33.00">
        <vehicle id="f_high.0" x="1.60" y="422.14" angle="0.00" type="car" speed="14.22" pos="418.94" lane="A0A1_0" slope="0.00"/>
        <vehicle id="f_high.1" x="1.60" y="350.69" angle="0.00" type="car" speed="12.83" pos="347.49" lane="A0A1_0" slope="0.00"/>
        <vehicle id="f_high.10" x="1.60" y="19.03" angle="0.00" type="car" speed="5.74" pos="15.83" lane="A0A1_0" slope="0.00"/>
        <vehicle id="f_high.11" x="1.60" y="8.30" angle="0.00" type="car" speed="0.00" pos="5.10" lane="A0A1_0" slope="0.00"/>
        <vehicle id="f_high.2" x="1.60" y="328.01" angle="0.00" type="car" speed="13.05" pos="324.81" lane="A0A1_0" slope="0.00"/>
        <vehicle id="f_high.3" x="1.60" y="304.67" angle="0.00" type="car" speed="13.34" pos="301.47" lane="A0A1_0" slope="0.00"/>
        <vehicle id="f_high.4" x="1.60" y="254.70" angle="0.00" type="car" speed="14.04" pos="251.50" lane="A0A1_0" slope="0.00"/>
        <vehicle id="f_high.5" x="1.60" y="176.76" angle="0.00" type="car" speed="11.35" pos="173.56" lane="A0A1_0" slope="0.00"/>
        <vehicle id="f_high.6" x="1.60" y="154.98" angle="0.00" type="car" speed="10.44" pos="151.78" lane="A0A1_0" slope="0.00"/>
        <vehicle id="f_high.7" x="1.60" y="121.00" angle="0.00" type="car" speed="11.24" pos="117.80" lane="A0A1_0" slope="0.00"/>
        <vehicle id="f_high.8" x="1.60" y="88.37" angle="0.00" type="car" speed="12.06" pos="85.17" lane="A0A1_0" slope="0.00"/>
        <vehicle id="f_high.9" x="1.60" y="44.48" angle="0.00" type="car" speed="10.28" pos="41.28" lane="A0A1_0" slope="0.00"/>
    </timestep>
    <timestep time="34.00">
        <vehicle id="f_high.0" x="1.60" y="436.01" angle="0.00" type="car" speed="13.87" pos="432.81" lane="A0A1_0" slope="0.00"/>
        <vehicle id="f_high.1" x="1.60" y="363.13" angle="0.00" type="car" speed="12.44" pos="359.93" lane="A0A1_0" slope="0.00"/>
        <vehicle id="f_high.10" x="1.60" y="27.16" angle="0.00" type="car" speed="8.13" pos="23.96" lane="A0A1_0" slope="0.00"/>